
 Primary working directories    : //scratch/dsnoeken/mp/H2test
 Secondary working directories  : //scratch/dsnoeken/mp/H2test
 Wavefunction directory         : /home/dsnoeken/wfu/
 Main file repository           : //scratch/dsnoeken/mp/H2test/

 ARCHNAME  : Linux/x86_64
 FC        : /opt/intel/compilerpro-12.0.1.107/bin/intel64/ifort
 FCVERSION : 12.0.0
 BLASLIB   : 
 id        : science

 Nodes     nprocs
 cn31         1
 ga_uses_ma=false, calling ma_init with nominal heap.
 GA-space will be limited to   8.0 MW (determined by -G option)

 Using customized tuning parameters: mindgm=4; mindgv=4; mindgc=1; mindgr=1; noblas=0; mincuda=1000; minvec=7
 default implementation of scratch files=df  

  
 ***,H2
  
 memory, 300, m
 print,orbitals
 nocompress
  
 Rv=[0.5 0.6 0.7 0.8 0.9 1 1.1 1.2 1.3 1.4 1.5 1.6 1.7 1.8 1.9 2 2.2 2.4 2.6 2.8 3 3.4 3.8 4.2 4.6 5 5.5 6 6.5 7 8 9 10 11 12 13 14 15 16 18 20 25 30]
  
 R=Rv(24)
  
 bohr
 geometry ={
 H,0,0,-R/2
 H,0,0,R/2
 }
 basis=avtz
  
 hf
 ehf = energy
  
 text,TABLE
 {table,R,ehf
 digits,3,16}
 ---

 Variables initialized (664), CPU time= 0.00 sec
 Commands  initialized (462), CPU time= 0.01 sec, 486 directives.
 Default parameters read. Elapsed time= 0.16 sec

 Checking input...
 Passed
1


                                         ***  PROGRAM SYSTEM MOLPRO  ***
                         Copyright, University College Cardiff Consultants Limited, 2008

                                    Version 2010.1 linked 26 Jan 2011 12:51:57


 **********************************************************************************************************************************
 LABEL *   H2                                                                            
 Linux-4.15.0-45-generic/cn31(x86_64) 64 bit mpp version                                 DATE: 20-Mar-19          TIME: 13:15:58  
 **********************************************************************************************************************************

 Patch level:      13
 **********************************************************************************************************************************


 Input parameters for SORTINT:

 COMPRESS =    0.000000
 C_FINAL  =    1.000000
 DEBUG    =   -1.000000
 C_SORT1  =    0.000000
 C_SEWARD =    0.000000
 THRESH   =    0.000000
 IO       =  molpro                                                          
 SPRI     =    0.000000
 SETTING RV(1)          =         0.50000000                                  
 SETTING RV(2)          =         0.60000000                                  
 SETTING RV(3)          =         0.70000000                                  
 SETTING RV(4)          =         0.80000000                                  
 SETTING RV(5)          =         0.90000000                                  
 SETTING RV(6)          =         1.00000000                                  
 SETTING RV(7)          =         1.10000000                                  
 SETTING RV(8)          =         1.20000000                                  
 SETTING RV(9)          =         1.30000000                                  
 SETTING RV(10)         =         1.40000000                                  
 SETTING RV(11)         =         1.50000000                                  
 SETTING RV(12)         =         1.60000000                                  
 SETTING RV(13)         =         1.70000000                                  
 SETTING RV(14)         =         1.80000000                                  
 SETTING RV(15)         =         1.90000000                                  
 SETTING RV(16)         =         2.00000000                                  
 SETTING RV(17)         =         2.20000000                                  
 SETTING RV(18)         =         2.40000000                                  
 SETTING RV(19)         =         2.60000000                                  
 SETTING RV(20)         =         2.80000000                                  
 SETTING RV(21)         =         3.00000000                                  
 SETTING RV(22)         =         3.40000000                                  
 SETTING RV(23)         =         3.80000000                                  
 SETTING RV(24)         =         4.20000000                                  
 SETTING RV(25)         =         4.60000000                                  
 SETTING RV(26)         =         5.00000000                                  
 SETTING RV(27)         =         5.50000000                                  
 SETTING RV(28)         =         6.00000000                                  
 SETTING RV(29)         =         6.50000000                                  
 SETTING RV(30)         =         7.00000000                                  
 SETTING RV(31)         =         8.00000000                                  
 SETTING RV(32)         =         9.00000000                                  
 SETTING RV(33)         =        10.00000000                                  
 SETTING RV(34)         =        11.00000000                                  
 SETTING RV(35)         =        12.00000000                                  
 SETTING RV(36)         =        13.00000000                                  
 SETTING RV(37)         =        14.00000000                                  
 SETTING RV(38)         =        15.00000000                                  
 SETTING RV(39)         =        16.00000000                                  
 SETTING RV(40)         =        18.00000000                                  
 SETTING RV(41)         =        20.00000000                                  
 SETTING RV(42)         =        25.00000000                                  
 SETTING RV(43)         =        30.00000000                                  
 SETTING R              =         4.20000000                                  
 ZUNIT=BOHR
 

Geometry recognized as XYZ


 Variable memory set to  300000000 words,  buffer space   230000 words

 SETTING BASIS          =    AVTZ


 Recomputing integrals since basis changed


 Using spherical harmonics

 Library entry H      S aug-cc-pVTZ          selected for orbital group  1
 Library entry H      P aug-cc-pVTZ          selected for orbital group  1
 Library entry H      D aug-cc-pVTZ          selected for orbital group  1

1PROGRAM * SEWARD (Integral evaluation for generally contracted gaussian basis sets)     Author: Roland Lindh, 1990

 Geometry written to block  1 of record 700


 Point group  D2h 



 ATOMIC COORDINATES

 NR  ATOM    CHARGE       X              Y              Z

   1  H       1.00    0.000000000    0.000000000   -2.100000000
   2  H       1.00    0.000000000    0.000000000    2.100000000

 NUCLEAR CHARGE:                    2
 NUMBER OF PRIMITIVE AOS:          54
 NUMBER OF SYMMETRY AOS:           50
 NUMBER OF CONTRACTIONS:           46   (  11Ag  +   5B3u +   5B2u +   2B1g +  11B1u +   5B2g +   5B3g +   2Au  )
 NUMBER OF CORE ORBITALS:           0   (   0Ag  +   0B3u +   0B2u +   0B1g +   0B1u +   0B2g +   0B3g +   0Au  )
 NUMBER OF VALENCE ORBITALS:        2   (   1Ag  +   0B3u +   0B2u +   0B1g +   1B1u +   0B2g +   0B3g +   0Au  )


 NUCLEAR REPULSION ENERGY    0.23809524

 EXTRA SYMMETRY OF AOS IN SYMMETRY 1:   1 1 1 1 1 1 1 1 2 1   2
 EXTRA SYMMETRY OF AOS IN SYMMETRY 5:   1 1 1 1 1 1 1 1 2 1   2

 Eigenvalues of metric

         1 0.127E-01 0.116E+00 0.172E+00 0.510E+00 0.614E+00 0.784E+00 0.101E+01 0.150E+01
         2 0.241E+00 0.633E+00 0.954E+00 0.163E+01 0.236E+01
         3 0.241E+00 0.633E+00 0.954E+00 0.163E+01 0.236E+01
         4 0.614E+00 0.150E+01
         5 0.971E-02 0.133E-01 0.680E-01 0.192E+00 0.391E+00 0.526E+00 0.648E+00 0.111E+01
         6 0.171E+00 0.314E+00 0.679E+00 0.120E+01 0.181E+01
         7 0.171E+00 0.314E+00 0.679E+00 0.120E+01 0.181E+01
         8 0.526E+00 0.136E+01


 Contracted 2-electron integrals neglected if value below      1.0D-11

 Implementation of unsorted integral record: df  

 Implementation of unsorted integral record: df  

          69839. INTEGRALS WRITTEN OUT IN    18 BLOCKS ON RECORD 1290 OF FILE 1


 NUMBER OF SORTED TWO-ELECTRON INTEGRALS:      84552.     BUFFER LENGTH:  32768
 NUMBER OF SEGMENTS:   1  SEGMENT LENGTH:      84552      RECORD LENGTH: 524288

 Memory used in sort:       0.64 MW

 SORT1 READ       69839. AND WROTE       75760. INTEGRALS IN      1 RECORDS. CPU TIME:     0.00 SEC, REAL TIME:     0.02 SEC
 SORT2 READ       75760. AND WROTE       84552. INTEGRALS IN      1 RECORDS. CPU TIME:     0.01 SEC, REAL TIME:     0.03 SEC

 FILE SIZES:   FILE 1:     5.4 MBYTE,  FILE 4:     4.2 MBYTE,   TOTAL:      9.6 MBYTE

 OPERATOR DM      FOR CENTER  0  COORDINATES:    0.000000    0.000000    0.000000


 **********************************************************************************************************************************
 DATASETS  * FILE   NREC   LENGTH (MB)   RECORD NAMES
              1      19        4.63       500      610      700      900      950      970     1000      129      960     1100   
                                          VAR    BASINP    GEOM    SYMINP    ZMAT    AOBASIS   BASIS     P2S    ABASIS      S 
                                         1400     1410     1200     1210     1080     1600     1650     1300     1700   
                                           T        V       H0       H01     AOSYM     SMH    MOLCAS    ERIS     OPER   

 PROGRAMS   *        TOTAL       INT
 CPU TIMES  *         0.08      0.03
 REAL TIME  *         0.34 SEC
 DISK USED  *        10.08 MB      
 GA USED    *         0.00 MB       (max)       0.00 MB       (current)
 **********************************************************************************************************************************

1PROGRAM * RHF-SCF (CLOSED SHELL)       Authors: W. Meyer, H.-J. Werner


 NUMBER OF ELECTRONS:       1+    1-
 CONVERGENCE THRESHOLDS:    1.00E-05 (Density)    1.00E-07 (Energy)
 MAX. NUMBER OF ITERATIONS:       60
 INTERPOLATION TYPE:            DIIS
 INTERPOLATION STEPS:              2 (START)      1 (STEP)
 LEVEL SHIFTS:                  0.00 (CLOSED)  0.00 (OPEN) 



 Orbital guess generated from atomic densities. Full valence occupancy:    1   0   0   0   1   0   0   0


 Molecular orbital dump at record        2100.2

 Initial alpha occupancy:   1   0   0   0   0   0   0   0
 Initial beta  occupancy:   1   0   0   0   0   0   0   0
 Wave function symmetry:    1

 ITERATION    DDIFF          GRAD             ENERGY        2-EL.EN.            DIPOLE MOMENTS         DIIS
    1      0.000D+00      0.000D+00        -0.89766961      0.776192    0.00000    0.00000    0.00000    0
    2      0.000D+00      0.297D-02        -0.89905758      0.783278    0.00000    0.00000    0.00000    1
    3      0.251D-02      0.746D-03        -0.89916461      0.785524    0.00000    0.00000    0.00000    2
    4      0.102D-02      0.642D-04        -0.89916535      0.785578    0.00000    0.00000    0.00000    3
    5      0.123D-03      0.310D-05        -0.89916535      0.785578    0.00000    0.00000    0.00000    4
    6      0.555D-05      0.426D-06        -0.89916535      0.785578    0.00000    0.00000    0.00000    0

 Final occupancy:   1   0   0   0   0   0   0   0

 !RHF STATE 1.1 Energy                 -0.899165348006
 Nuclear energy                         0.23809524
 One-electron energy                   -1.53004954
 Two-electron energy                    0.39278895
 Virial quotient                       -1.37985850
 !RHF STATE 1.1 Dipole moment           0.00000000     0.00000000     0.00000000
 Dipole moment /Debye                   0.00000000     0.00000000     0.00000000

 ELECTRON ORBITALS
 =================


   Orb  Occ    Energy  Couls-En    Coefficients

                                   1 1s      1 1s      1 1s      1 1s      1 2pz     1 2pz     1 2pz     1 3d0     1 3d2+    1 3d0  
                                   1 3d2+ 

   1.1   2    -0.3722   -1.1373  0.779963 -0.039227  0.129962  0.043047  0.001022  0.015276  0.035441  0.000654  0.000000  0.007455
                                 0.000000


 **********************************************************************************************************************************
 DATASETS  * FILE   NREC   LENGTH (MB)   RECORD NAMES
              1      19        4.63       500      610      700      900      950      970     1000      129      960     1100   
                                          VAR    BASINP    GEOM    SYMINP    ZMAT    AOBASIS   BASIS     P2S    ABASIS      S 
                                         1400     1410     1200     1210     1080     1600     1650     1300     1700   
                                           T        V       H0       H01     AOSYM     SMH    MOLCAS    ERIS     OPER   

              2       3        0.28       700     1000     2100   
                                         GEOM     BASIS     RHF  

 PROGRAMS   *        TOTAL        HF       INT
 CPU TIMES  *         0.08      0.00      0.03
 REAL TIME  *         0.35 SEC
 DISK USED  *        10.08 MB      
 GA USED    *         0.00 MB       (max)       0.00 MB       (current)
 **********************************************************************************************************************************
 SETTING EHF            =        -0.89916535  AU                              

 *** TABLE
                                                                                                                                                                                                                                                                

      R        EHF
    4.200   -0.8991653480056042
                                                  

        HF-SCF  
     -0.89916535
 **********************************************************************************************************************************
 Variable memory released
